3
H2O.out	Energy:     -76.3983668
O          0.90623        0.04430       -0.01049
H          1.86524        0.02931       -0.02081
H          0.60373       -0.70539       -0.52671
