3
H2S.out	Energy:    -399.3298794
S          0.99676        0.08703        0.12761
H          2.30870       -0.06597        0.00431
H          0.74472       -0.92707       -0.68963
