3
H2Se.out	Energy:   -2403.6041311
Se         0.96113       -0.01948        0.12310
H          2.38022       -0.17760       -0.04256
H          0.70401       -0.99597       -0.89995
