3
H2Te.out	Energy:    -269.6479488
Te         0.99722        0.12617       -0.03072
H          2.60899       -0.09805        0.17889
H          0.74935       -1.05862        1.07692
