5
ICl4.out	Energy:   -2138.5903087
I          0.53077       -0.71827        0.20615
Cl         0.68413       -1.44722       -2.09927
Cl         0.68488        0.40566        2.34775
Cl         0.27520        1.57255       -0.74996
Cl         2.95791       -0.17895       -0.01807
