7
PF6.out	Energy:    -940.1884680
P          0.74506       -0.13590       -0.22524
F         -0.80307        0.00837       -0.69365
F          0.98026       -1.27788       -1.35558
F          0.31518       -1.28103        0.84271
F          0.50959        1.00631        0.90467
F          1.17542        1.00922       -1.29301
F          2.29311       -0.28097        0.24309
