7
SF6.out	Energy:    -996.8997802
S          1.06893        0.07055        0.01651
F          1.06893        1.33329        0.98258
F          1.06893        1.03662       -1.24623
F         -0.52098        0.07055        0.01651
F          1.06893       -1.19219       -0.94956
F          1.06893       -0.89552        1.27925
F          2.65884        0.07055        0.01651
