6
 energy: -26.744686532919 gnorm: 0.000933813567 xtb: 6.7.1 (unknown)
Xe          -0.76208941792791        1.13299167292305       -0.00000305682877
O           -0.76208914788008        2.83144344495966       -0.00000372695474
F            1.12542817770523        0.98336886715017       -0.00000307154957
F           -0.76208942152584        0.98336902810393       -1.88752065228937
F           -2.64960700955677        0.98336863893446       -0.00000308206079
F           -0.76208941101463        0.98336846612873        1.88751453548324
